Title: * simulation de rc2
Date: Sat Jun 16 23:11:45  2018
Plotname: Transient Analysis
Flags: real
No. Variables: 8
No. Points: 1069
Variables:
	0	time	time
	1	n0	voltage
	2	n1	voltage
	3	n2	voltage
	4	n3	voltage
	5	n4	voltage
	6	n5	voltage
	7	i(v1)	current
Values:
 0	0.000000000000000e+00
	0.000000000000000e+00
	-5.263157894736840e-03
	-1.052631578947368e-02
	-3.684210526315788e-02
	-4.210526315789472e-02
	-4.736842105263156e-02
	-5.263157894736841e-06

 1	1.000000000000000e-10
	0.000000000000000e+00
	-5.263157894736840e-03
	-1.052631578947368e-02
	-3.684210526315790e-02
	-4.210526315789474e-02
	-4.736842105263157e-02
	-5.263157894736841e-06

 2	2.000000000000000e-10
	0.000000000000000e+00
	-5.263157894736840e-03
	-1.052631578947369e-02
	-3.684210526315791e-02
	-4.210526315789475e-02
	-4.736842105263158e-02
	-5.263157894736841e-06

 3	4.000000000000000e-10
	0.000000000000000e+00
	-5.263157894736840e-03
	-1.052631578947369e-02
	-3.684210526315793e-02
	-4.210526315789477e-02
	-4.736842105263159e-02
	-5.263157894736841e-06

 4	8.000000000000000e-10
	0.000000000000000e+00
	-5.263157894736840e-03
	-1.052631578947369e-02
	-3.684210526315793e-02
	-4.210526315789479e-02
	-4.736842105263162e-02
	-5.263157894736841e-06

 5	1.600000000000000e-09
	0.000000000000000e+00
	-5.263157894736841e-03
	-1.052631578947369e-02
	-3.684210526315790e-02
	-4.210526315789481e-02
	-4.736842105263162e-02
	-5.263157894736841e-06

 6	3.200000000000000e-09
	0.000000000000000e+00
	-5.263157894736845e-03
	-1.052631578947369e-02
	-3.684210526315791e-02
	-4.210526315789483e-02
	-4.736842105263164e-02
	-5.263157894736845e-06

 7	6.400000000000000e-09
	0.000000000000000e+00
	-5.263157894736848e-03
	-1.052631578947369e-02
	-3.684210526315793e-02
	-4.210526315789485e-02
	-4.736842105263165e-02
	-5.263157894736848e-06

 8	1.000000000000000e-08
	0.000000000000000e+00
	-5.263157894736847e-03
	-1.052631578947370e-02
	-3.684210526315794e-02
	-4.210526315789485e-02
	-4.736842105263166e-02
	-5.263157894736847e-06

 9	1.064000000000000e-08
	6.399999999999995e-02
	-5.222250239792260e-03
	-1.052628962866561e-02
	-3.684210525981192e-02
	-4.210526315789271e-02
	-4.736842105263166e-02
	-6.922225023979221e-05

 10	1.192000000000000e-08
	1.920000000000000e-01
	-5.058724142918059e-03
	-1.052613277081084e-02
	-3.684210523306262e-02
	-4.210526315787134e-02
	-4.736842105263166e-02
	-1.970587241429181e-04

 11	1.448000000000000e-08
	4.480000000000001e-01
	-4.242657502662841e-03
	-1.052456782096121e-02
	-3.684210473957940e-02
	-4.210526315716456e-02
	-4.736842105263072e-02
	-4.522426575026630e-04

 12	1.960000000000000e-08
	9.600000000000003e-01
	-6.668897381089340e-04
	-1.051024363171278e-02
	-3.684209564675495e-02
	-4.210526313134569e-02
	-4.736842105256111e-02
	-9.606668897381092e-04

 13	2.000000000000000e-08
	1.000000000000000e+00
	-2.787152119874950e-04
	-1.050833566126994e-02
	-3.684209428959365e-02
	-4.210526312725055e-02
	-4.736842105254971e-02
	-1.000278715211988e-03

 14	2.079999999999999e-08
	1.000000000000000e+00
	5.120624982887491e-04
	-1.050373715811008e-02
	-3.684209069096814e-02
	-4.210526311566028e-02
	-4.736842105251603e-02
	-9.994879375017113e-04

 15	2.239999999999998e-08
	1.000000000000000e+00
	2.091099819291950e-03
	-1.049328695271301e-02
	-3.684208183016646e-02
	-4.210526308543940e-02
	-4.736842105242458e-02
	-9.979089001807080e-04

 16	2.559999999999996e-08
	1.000000000000000e+00
	5.234125988328617e-03
	-1.046490578411401e-02
	-3.684205175703262e-02
	-4.210526296319038e-02
	-4.736842105199861e-02
	-9.947658740116713e-04

 17	3.199999999999991e-08
	1.000000000000000e+00
	1.146058064291068e-02
	-1.037860139649945e-02
	-3.684191883508550e-02
	-4.210526220274424e-02
	-4.736842104833641e-02
	-9.885394193570893e-04

 18	4.199999999999991e-08
	1.000000000000000e+00
	2.103291989879730e-02
	-1.016654634276128e-02
	-3.684141657084880e-02
	-4.210525788918350e-02
	-4.736842101743430e-02
	-9.789670801012027e-04

 19	5.199999999999991e-08
	1.000000000000000e+00
	3.041826137333629e-02
	-9.862796205173233e-03
	-3.684040748937346e-02
	-4.210524617843157e-02
	-4.736842090718695e-02
	-9.695817386266637e-04

 20	6.199999999999991e-08
	1.000000000000000e+00
	3.962120136709362e-02
	-9.470279562503296e-03
	-3.683871814889899e-02
	-4.210522133906587e-02
	-4.736842061639474e-02
	-9.603787986329063e-04

 21	7.199999999999990e-08
	1.000000000000000e+00
	4.864621656679873e-02
	-8.991844628689705e-03
	-3.683618285413205e-02
	-4.210517607294379e-02
	-4.736841998017365e-02
	-9.513537834332013e-04

 22	8.199999999999990e-08
	1.000000000000000e+00
	5.749766719899765e-02
	-8.430261399934269e-03
	-3.683264339115821e-02
	-4.210510162091056e-02
	-4.736841875559619e-02
	-9.425023328010024e-04

 23	9.199999999999990e-08
	1.000000000000000e+00
	6.617980010028152e-02
	-7.788223744731790e-03
	-3.682794877075442e-02
	-4.210498786369465e-02
	-4.736841660851659e-02
	-9.338201998997186e-04

 24	1.019999999999999e-07
	1.000000000000000e+00
	7.469675170630027e-02
	-7.068351438350980e-03
	-3.682195497984327e-02
	-4.210482341817910e-02
	-4.736841310152075e-02
	-9.253032482936998e-04

 25	1.119999999999999e-07
	1.000000000000000e+00
	8.305255096171218e-02
	-6.273192143242040e-03
	-3.681452474083782e-02
	-4.210459572923073e-02
	-4.736840768294324e-02
	-9.169474490382879e-04

 26	1.219999999999999e-07
	1.000000000000000e+00
	9.125112215316321e-02
	-5.405223336806842e-03
	-3.680552727863351e-02
	-4.210429115726236e-02
	-4.736839967689659e-02
	-9.087488778468368e-04

 27	1.319999999999999e-07
	1.000000000000000e+00
	9.929628766733459e-02
	-4.466854187929578e-03
	-3.679483809501118e-02
	-4.210389506169680e-02
	-4.736838827426001e-02
	-9.007037123326654e-04

 28	1.419999999999999e-07
	1.000000000000000e+00
	1.071917706760430e-01
	-3.460427383628575e-03
	-3.678233875022229e-02
	-4.210339188049526e-02
	-4.736837252457736e-02
	-8.928082293239570e-04

 29	1.519999999999999e-07
	1.000000000000000e+00
	1.149411977503255e-01
	-2.388220907153795e-03
	-3.676791665153454e-02
	-4.210276520590699e-02
	-4.736835132881570e-02
	-8.850588022496746e-04

 30	1.619999999999999e-07
	1.000000000000000e+00
	1.225481014053885e-01
	-1.252449768819444e-03
	-3.675146484852265e-02
	-4.210199785659108e-02
	-4.736832343293854e-02
	-8.774518985946115e-04

 31	1.720000000000000e-07
	1.000000000000000e+00
	1.300159225782539e-01
	-5.526769082677404e-05
	-3.673288183489601e-02
	-4.210107194625567e-02
	-4.736828742224924e-02
	-8.699840774217462e-04

 32	1.820000000000000e-07
	1.000000000000000e+00
	1.373480130398819e-01
	1.201231252701102e-03
	-3.671207135666085e-02
	-4.209996894895492e-02
	-4.736824171646237e-02
	-8.626519869601181e-04

 33	1.920000000000000e-07
	1.000000000000000e+00
	1.445476377435080e-01
	2.515011039283064e-03
	-3.668894222642105e-02
	-4.209866976117863e-02
	-4.736818456546246e-02
	-8.554523622564920e-04

 34	2.020000000000000e-07
	1.000000000000000e+00
	1.516179771108809e-01
	3.884092144084753e-03
	-3.666340814362760e-02
	-4.209715476086430e-02
	-4.736811404571121e-02
	-8.483820228891190e-04

 35	2.120000000000000e-07
	1.000000000000000e+00
	1.585621292580482e-01
	5.306550027237246e-03
	-3.663538752059255e-02
	-4.209540386345707e-02
	-4.736802805726643e-02
	-8.414378707419518e-04

 36	2.220000000000000e-07
	1.000000000000000e+00
	1.653831121622879e-01
	6.780513661372586e-03
	-3.660480331408882e-02
	-4.209339657513776e-02
	-4.736792432137686e-02
	-8.346168878377120e-04

 37	2.320000000000000e-07
	1.000000000000000e+00
	1.720838657717461e-01
	8.304164098308220e-03
	-3.657158286236279e-02
	-4.209111204333528e-02
	-4.736780037861923e-02
	-8.279161342282540e-04

 38	2.420000000000000e-07
	1.000000000000000e+00
	1.786672540592964e-01
	9.875733073840782e-03
	-3.653565772739196e-02
	-4.208852910463518e-02
	-4.736765358754517e-02
	-8.213327459407037e-04

 39	2.520000000000000e-07
	1.000000000000000e+00
	1.851360670220998e-01
	1.149350164963728e-02
	-3.649696354222490e-02
	-4.208562633019176e-02
	-4.736748112380686e-02
	-8.148639329779002e-04

 40	2.620000000000000e-07
	1.000000000000000e+00
	1.914930226283002e-01
	1.315579889123855e-02
	-3.645543986324589e-02
	-4.208238206874743e-02
	-4.736727997973209e-02
	-8.085069773716998e-04

 41	2.720000000000001e-07
	1.000000000000000e+00
	1.977407687122570e-01
	1.486100058121615e-02
	-3.641103002721123e-02
	-4.207877448735892e-02
	-4.736704696432033e-02
	-8.022592312877430e-04

 42	2.820000000000001e-07
	1.000000000000000e+00
	2.038818848196765e-01
	1.660752796654910e-02
	-3.636368101290916e-02
	-4.207478160992643e-02
	-4.736677870363300e-02
	-7.961181151803235e-04

 43	2.920000000000001e-07
	1.000000000000000e+00
	2.099188840039694e-01
	1.839384653931195e-02
	-3.631334330729976e-02
	-4.207038135361796e-02
	-4.736647164155221e-02
	-7.900811159960306e-04

 44	3.020000000000001e-07
	1.000000000000000e+00
	2.158542145751240e-01
	2.021846484978952e-02
	-3.625997077599536e-02
	-4.206555156327766e-02
	-4.736612204088329e-02
	-7.841457854248761e-04

 45	3.120000000000001e-07
	1.000000000000000e+00
	2.216902618023540e-01
	2.207993335115729e-02
	-3.620352053794667e-02
	-4.206027004390386e-02
	-4.736572598477805e-02
	-7.783097381976461e-04

 46	3.220000000000001e-07
	1.000000000000000e+00
	2.274293495717433e-01
	2.397684327488934e-02
	-3.614395284420364e-02
	-4.205451459127896e-02
	-4.736527937845617e-02
	-7.725706504282568e-04

 47	3.320000000000001e-07
	1.000000000000000e+00
	2.330737420000799e-01
	2.590782553607782e-02
	-3.608123096062425e-02
	-4.204826302083031e-02
	-4.736477795120358e-02
	-7.669262579999202e-04

 48	3.420000000000001e-07
	1.000000000000000e+00
	2.386256450060384e-01
	2.787154966786968e-02
	-3.601532105440825e-02
	-4.204149319479834e-02
	-4.736421725862765e-02
	-7.613743549939616e-04

 49	3.520000000000001e-07
	1.000000000000000e+00
	2.440872078398402e-01
	2.986672278424762e-02
	-3.594619208433657e-02
	-4.203418304778513e-02
	-4.736359268514979e-02
	-7.559127921601598e-04

 50	3.620000000000001e-07
	1.000000000000000e+00
	2.494605245724901e-01
	3.189208857040243e-02
	-3.587381569460098e-02
	-4.202631061075379e-02
	-4.736289944671722e-02
	-7.505394754275099e-04

 51	3.720000000000002e-07
	1.000000000000000e+00
	2.547476355456605e-01
	3.394642629996426e-02
	-3.579816611211185e-02
	-4.201785403354651e-02
	-4.736213259371633e-02
	-7.452523644543396e-04

 52	3.820000000000002e-07
	1.000000000000000e+00
	2.599505287832630e-01
	3.602854987837953e-02
	-3.571922004717545e-02
	-4.200879160598656e-02
	-4.736128701407117e-02
	-7.400494712167371e-04

 53	3.920000000000002e-07
	1.000000000000000e+00
	2.650711413657237e-01
	3.813730691173914e-02
	-3.563695659743572e-02
	-4.199910177762640e-02
	-4.736035743651103e-02
	-7.349288586342763e-04

 54	4.020000000000002e-07
	1.000000000000000e+00
	2.701113607679476e-01
	4.027157780038235e-02
	-3.555135715497826e-02
	-4.198876317620272e-02
	-4.735933843399240e-02
	-7.298886392320524e-04

 55	4.120000000000002e-07
	1.000000000000000e+00
	2.750730261619339e-01
	4.243027485661827e-02
	-3.546240531649770e-02
	-4.197775462485578e-02
	-4.735822442726079e-02
	-7.249269738380662e-04

 56	4.220000000000002e-07
	1.000000000000000e+00
	2.799579296849775e-01
	4.461234144592463e-02
	-3.537008679643270e-02
	-4.196605515816919e-02
	-4.735700968853902e-02
	-7.200420703150225e-04

 57	4.320000000000002e-07
	1.000000000000000e+00
	2.847678176743687e-01
	4.681675115100040e-02
	-3.527438934297558e-02
	-4.195364403708305e-02
	-4.735568834532900e-02
	-7.152321823256313e-04

 58	4.420000000000002e-07
	1.000000000000000e+00
	2.895043918694756e-01
	4.904250695806538e-02
	-3.517530265686653e-02
	-4.194050076273235e-02
	-4.735425438431504e-02
	-7.104956081305245e-04

 59	4.520000000000002e-07
	1.000000000000000e+00
	2.941693105820746e-01
	5.128864046481608e-02
	-3.507281831288509e-02
	-4.192660508925957e-02
	-4.735270165535680e-02
	-7.058306894179255e-04

 60	4.620000000000002e-07
	1.000000000000000e+00
	2.987641898357676e-01
	5.355421110946279e-02
	-3.496692968395431e-02
	-4.191193703564929e-02
	-4.735102387556130e-02
	-7.012358101642325e-04

 61	4.720000000000003e-07
	1.000000000000000e+00
	3.032906044753056e-01
	5.583830542028791e-02
	-3.485763186777557e-02
	-4.189647689663008e-02
	-4.734921463342328e-02
	-6.967093955246944e-04

 62	4.820000000000002e-07
	1.000000000000000e+00
	3.077500892466140e-01
	5.814003628518101e-02
	-3.474492161591454e-02
	-4.188020525268762e-02
	-4.734726739302440e-02
	-6.922499107533860e-04

 63	4.920000000000002e-07
	1.000000000000000e+00
	3.121441398482939e-01
	6.045854224061958e-02
	-3.462879726526127e-02
	-4.186310297923085e-02
	-4.734517549828181e-02
	-6.878558601517062e-04

 64	5.020000000000002e-07
	1.000000000000000e+00
	3.164742139553584e-01
	6.279298677957962e-02
	-3.450925867178968e-02
	-4.184515125495188e-02
	-4.734293217723737e-02
	-6.835257860446416e-04

 65	5.120000000000002e-07
	1.000000000000000e+00
	3.207417322159327e-01
	6.514255767787304e-02
	-3.438630714654407e-02
	-4.182633156941794e-02
	-4.734053054637932e-02
	-6.792582677840673e-04

 66	5.220000000000003e-07
	1.000000000000000e+00
	3.249480792216384e-01
	6.750646633842279e-02
	-3.425994539378256e-02
	-4.180662572993290e-02
	-4.733796361498854e-02
	-6.750519207783616e-04

 67	5.320000000000003e-07
	1.000000000000000e+00
	3.290946044523556e-01
	6.988394715299924e-02
	-3.413017745120936e-02
	-4.178601586770394e-02
	-4.733522428950202e-02
	-6.709053955476444e-04

 68	5.420000000000003e-07
	1.000000000000000e+00
	3.331826231960415e-01
	7.227425688095407e-02
	-3.399700863223003e-02
	-4.176448444334756e-02
	-4.733230537788664e-02
	-6.668173768039585e-04

 69	5.520000000000003e-07
	1.000000000000000e+00
	3.372134174442658e-01
	7.467667404450047e-02
	-3.386044547016578e-02
	-4.174201425176791e-02
	-4.732919959401674e-02
	-6.627865825557343e-04

 70	5.620000000000003e-07
	1.000000000000000e+00
	3.411882367641051e-01
	7.709049834010019e-02
	-3.372049566436503e-02
	-4.171858842643884e-02
	-4.732589956204942e-02
	-6.588117632358949e-04

 71	5.720000000000003e-07
	1.000000000000000e+00
	3.451082991470221e-01
	7.951505006552953e-02
	-3.357716802815210e-02
	-4.169419044312005e-02
	-4.732239782079159e-02
	-6.548917008529780e-04

 72	5.820000000000003e-07
	1.000000000000000e+00
	3.489747918353373e-01
	8.194966956220819e-02
	-3.343047243855490e-02
	-4.166880412303626e-02
	-4.731868682805371e-02
	-6.510252081646628e-04

 73	5.920000000000003e-07
	1.000000000000000e+00
	3.527888721268881e-01
	8.439371667238543e-02
	-3.328041978775535e-02
	-4.164241363554719e-02
	-4.731475896498491e-02
	-6.472111278731119e-04

 74	6.020000000000003e-07
	1.000000000000000e+00
	3.565516681584507e-01
	8.684657021078911e-02
	-3.312702193620781e-02
	-4.161500350033503e-02
	-4.731060654038478e-02
	-6.434483318415493e-04

 75	6.120000000000003e-07
	1.000000000000000e+00
	3.602642796684871e-01
	8.930762745035335e-02
	-3.297029166737252e-02
	-4.158655858913510e-02
	-4.730622179498758e-02
	-6.397357203315130e-04

 76	6.220000000000004e-07
	1.000000000000000e+00
	3.639277787397647e-01
	9.177630362165116e-02
	-3.281024264401305e-02
	-4.155706412703386e-02
	-4.730159690571457e-02
	-6.360722212602353e-04

 77	6.320000000000004e-07
	1.000000000000000e+00
	3.675432105223798e-01
	9.425203142566793e-02
	-3.264688936600758e-02
	-4.152650569335808e-02
	-4.729672398989071e-02
	-6.324567894776202e-04

 78	6.420000000000004e-07
	1.000000000000000e+00
	3.711115939377052e-01
	9.673426055956133e-02
	-3.248024712962622e-02
	-4.149486922217747e-02
	-4.729159510942217e-02
	-6.288884060622949e-04

 79	6.520000000000004e-07
	1.000000000000000e+00
	3.746339223637637e-01
	9.922245725506305e-02
	-3.231033198822758e-02
	-4.146214100244233e-02
	-4.728620227493133e-02
	-6.253660776362363e-04

 80	6.620000000000004e-07
	1.000000000000000e+00
	3.781111643025222e-01
	1.017161038291864e-01
	-3.213716071432910e-02
	-4.142830767777682e-02
	-4.728053744984614e-02
	-6.218888356974778e-04

 81	6.720000000000004e-07
	1.000000000000000e+00
	3.815442640295817e-01
	1.042146982469130e-01
	-3.196075076300761e-02
	-4.139335624594769e-02
	-4.727459255444119e-02
	-6.184557359704182e-04

 82	6.820000000000004e-07
	1.000000000000000e+00
	3.849341422267310e-01
	1.067177536955402e-01
	-3.178112023658747e-02
	-4.135727405802726e-02
	-4.726835946982760e-02
	-6.150658577732690e-04

 83	6.920000000000004e-07
	1.000000000000000e+00
	3.882816965978153e-01
	1.092247981703802e-01
	-3.159828785057506e-02
	-4.132004881726870e-02
	-4.726183004188964e-02
	-6.117183034021847e-04

 84	7.020000000000004e-07
	1.000000000000000e+00
	3.915878024683631e-01
	1.117353740715084e-01
	-3.141227290079981e-02
	-4.128166857771105e-02
	-4.725499608516573e-02
	-6.084121975316369e-04

 85	7.120000000000004e-07
	1.000000000000000e+00
	3.948533133693995e-01
	1.142490378112680e-01
	-3.122309523172310e-02
	-4.124212174253043e-02
	-4.724784938667183e-02
	-6.051466866306004e-04

 86	7.220000000000005e-07
	1.000000000000000e+00
	3.980790616058645e-01
	1.167653594322457e-01
	-3.103077520587740e-02
	-4.120139706215328e-02
	-4.724038170966539e-02
	-6.019209383941355e-04

 87	7.320000000000005e-07
	1.000000000000000e+00
	4.012658588100440e-01
	1.192839222354388e-01
	-3.083533367439955e-02
	-4.115948363214675e-02
	-4.723258479734833e-02
	-5.987341411899561e-04

 88	7.420000000000005e-07
	1.000000000000000e+00
	4.044144964804084e-01
	1.218043224183454e-01
	-3.063679194862287e-02
	-4.111637089090067e-02
	-4.722445037650738e-02
	-5.955855035195915e-04

 89	7.520000000000005e-07
	1.000000000000000e+00
	4.075257465062472e-01
	1.243261687227110e-01
	-3.043517177269399e-02
	-4.107204861711510e-02
	-4.721597016109066e-02
	-5.924742534937529e-04

 90	7.620000000000005e-07
	1.000000000000000e+00
	4.106003616784721e-01
	1.268490820916784e-01
	-3.023049529718144e-02
	-4.102650692710631e-02
	-4.720713585571930e-02
	-5.893996383215279e-04

 91	7.720000000000005e-07
	1.000000000000000e+00
	4.136390761869567e-01
	1.293726953360882e-01
	-3.002278505364398e-02
	-4.097973627194421e-02
	-4.719793915913285e-02
	-5.863609238130433e-04

 92	7.820000000000005e-07
	1.000000000000000e+00
	4.166426061047684e-01
	1.318966528096884e-01
	-2.981206393012746e-02
	-4.093172743443280e-02
	-4.718837176756789e-02
	-5.833573938952316e-04

 93	7.920000000000005e-07
	1.000000000000000e+00
	4.196116498596379e-01
	1.344206100930165e-01
	-2.959835514756053e-02
	-4.088247152594564e-02
	-4.717842537806879e-02
	-5.803883501403621e-04

 94	8.020000000000005e-07
	1.000000000000000e+00
	4.225468886930052e-01
	1.369442336857227e-01
	-2.938168223701967e-02
	-4.083195998312682e-02
	-4.716809169173027e-02
	-5.774531113069948e-04

 95	8.120000000000005e-07
	1.000000000000000e+00
	4.254489871069697e-01
	1.394672007071107e-01
	-2.916206901783567e-02
	-4.078018456446816e-02
	-4.715736241687093e-02
	-5.745510128930304e-04

 96	8.220000000000006e-07
	1.000000000000000e+00
	4.283185932994643e-01
	1.419891986046778e-01
	-2.893953957651399e-02
	-4.072713734677257e-02
	-4.714622927213760e-02
	-5.716814067005358e-04

 97	8.320000000000006e-07
	1.000000000000000e+00
	4.311563395879656e-01
	1.445099248704413e-01
	-2.871411824644255e-02
	-4.067281072151289e-02
	-4.713468398953981e-02
	-5.688436604120344e-04

 98	8.420000000000006e-07
	1.000000000000000e+00
	4.339628428220420e-01
	1.470290867648447e-01
	-2.848582958836149e-02
	-4.061719739109561e-02
	-4.712271831741460e-02
	-5.660371571779581e-04

 99	8.520000000000006e-07
	1.000000000000000e+00
	4.367387047850357e-01
	1.495464010480429e-01
	-2.825469837156967e-02
	-4.056029036503763e-02
	-4.711032402332122e-02
	-5.632612952149642e-04

 100	8.620000000000006e-07
	1.000000000000000e+00
	4.394845125851657e-01
	1.520615937183680e-01
	-2.802074955584428e-02
	-4.050208295606463e-02
	-4.709749289686570e-02
	-5.605154874148343e-04

 101	8.720000000000006e-07
	1.000000000000000e+00
	4.422008390363315e-01
	1.545743997577886e-01
	-2.778400827404977e-02
	-4.044256877613869e-02
	-4.708421675245544e-02
	-5.577991609636685e-04

 102	8.820000000000006e-07
	1.000000000000000e+00
	4.448882430288892e-01
	1.570845628841734e-01
	-2.754449981541383e-02
	-4.038174173242261e-02
	-4.707048743198383e-02
	-5.551117569711107e-04

 103	8.920000000000006e-07
	1.000000000000000e+00
	4.475472698906656e-01
	1.595918353101802e-01
	-2.730224960944835e-02
	-4.031959602318797e-02
	-4.705629680744501e-02
	-5.524527301093345e-04

 104	9.020000000000006e-07
	1.000000000000000e+00
	4.501784517384682e-01
	1.620959775085933e-01
	-2.705728321049422e-02
	-4.025612613367370e-02
	-4.704163678347923e-02
	-5.498215482615319e-04

 105	9.120000000000006e-07
	1.000000000000000e+00
	4.527823078203428e-01
	1.645967579839387e-01
	-2.680962628286938e-02
	-4.019132683190142e-02
	-4.702649929984880e-02
	-5.472176921796572e-04

 106	9.220000000000007e-07
	1.000000000000000e+00
	4.553593448488220e-01
	1.670939530502102e-01
	-2.655930458660018e-02
	-4.012519316445370e-02
	-4.701087633384527e-02
	-5.446406551511780e-04

 107	9.320000000000007e-07
	1.000000000000000e+00
	4.579100573254035e-01
	1.695873466145425e-01
	-2.630634396371688e-02
	-4.005772045222091e-02
	-4.699475990262805e-02
	-5.420899426745965e-04

 108	9.420000000000007e-07
	1.000000000000000e+00
	4.604349278564908e-01
	1.720767299666758e-01
	-2.605077032509450e-02
	-3.998890428612216e-02
	-4.697814206549508e-02
	-5.395650721435093e-04

 109	9.520000000000007e-07
	1.000000000000000e+00
	4.629344274610195e-01
	1.745619015740560e-01
	-2.579260963782092e-02
	-3.991874052280538e-02
	-4.696101492608600e-02
	-5.370655725389805e-04

 110	9.620000000000007e-07
	1.000000000000000e+00
	4.654090158699918e-01
	1.770426668824212e-01
	-2.553188791307475e-02
	-3.984722528033151e-02
	-4.694337063451837e-02
	-5.345909841300081e-04

 111	9.720000000000006e-07
	1.000000000000000e+00
	4.678591418181314e-01
	1.795188381217294e-01
	-2.526863119449606e-02
	-3.977435493384748e-02
	-4.692520138945740e-02
	-5.321408581818686e-04

 112	9.820000000000005e-07
	1.000000000000000e+00
	4.702852433278667e-01
	1.819902341172838e-01
	-2.500286554703337e-02
	-3.970012611125203e-02
	-4.690649944012022e-02
	-5.297147566721333e-04

 113	9.920000000000004e-07
	1.000000000000000e+00
	4.726877479858458e-01
	1.844566801059198e-01
	-2.473461704625100e-02
	-3.962453568885903e-02
	-4.688725708821491e-02
	-5.273122520141542e-04

 114	1.002000000000000e-06
	1.000000000000000e+00
	4.750670732121808e-01
	1.869180075571174e-01
	-2.446391176808156e-02
	-3.954758078706166e-02
	-4.686746668981534e-02
	-5.249329267878192e-04

 115	1.012000000000000e-06
	1.000000000000000e+00
	4.774236265226132e-01
	1.893740539989081e-01
	-2.419077577900831e-02
	-3.946925876600143e-02
	-4.684712065717223e-02
	-5.225763734773869e-04

 116	1.020000000000000e-06
	9.999999999999979e-01
	4.792927318198209e-01
	1.913349869879126e-01
	-2.397053375651320e-02
	-3.940561525020743e-02
	-4.683043889122412e-02
	-5.207072681801769e-04

 117	1.021000000000000e-06
	9.899999999999971e-01
	4.795152810755804e-01
	1.915798179107107e-01
	-2.394288392349976e-02
	-3.939759127690177e-02
	-4.682832532464391e-02
	-5.104847189244167e-04

 118	1.023000000000000e-06
	9.699999999999978e-01
	4.799400196202515e-01
	1.920693281520073e-01
	-2.388753669671515e-02
	-3.938151589528078e-02
	-4.682408677850264e-02
	-4.900599803797463e-04

 119	1.027000000000000e-06
	9.299999999999968e-01
	4.806678213098991e-01
	1.930471985320704e-01
	-2.377655769224697e-02
	-3.934920047419793e-02
	-4.681554103006277e-02
	-4.493321786900977e-04

 120	1.035000000000000e-06
	8.499999999999972e-01
	4.816415192383911e-01
	1.949959646874833e-01
	-2.355347146584611e-02
	-3.928391055921084e-02
	-4.679817313188386e-02
	-3.683584807616061e-04

 121	1.045000000000000e-06
	7.499999999999982e-01
	4.819674727987951e-01
	1.974127314676614e-01
	-2.327253161113652e-02
	-3.920106142227802e-02
	-4.677594036754445e-02
	-2.680325272012032e-04

 122	1.055000000000000e-06
	6.499999999999991e-01
	4.813206533745225e-01
	1.997996360244428e-01
	-2.298933752138491e-02
	-3.911683708484666e-02
	-4.675312002790510e-02
	-1.686793466254766e-04

 123	1.065000000000000e-06
	5.500000000000000e-01
	4.797199825122741e-01
	2.021474632994701e-01
	-2.270397094175964e-02
	-3.903123701065437e-02
	-4.672970486149092e-02
	-7.028001748772593e-05

 124	1.075000000000000e-06
	4.500000000000011e-01
	4.771839172994275e-01
	2.044472937545949e-01
	-2.241653066758484e-02
	-3.894426149641272e-02
	-4.670568769496575e-02
	2.718391729942643e-05

 125	1.085000000000000e-06
	3.500000000000021e-01
	4.737304624470202e-01
	2.066904952568205e-01
	-2.212713177053233e-02
	-3.885591182110945e-02
	-4.668106144130389e-02
	1.237304624470181e-04

 126	1.094999999999999e-06
	2.500000000000030e-01
	4.693771820541927e-01
	2.088687151800832e-01
	-2.183590485139396e-02
	-3.876619038491193e-02
	-4.665581910930564e-02
	2.193771820541897e-04

 127	1.104999999999999e-06
	1.500000000000040e-01
	4.641412110625167e-01
	2.109738727181076e-01
	-2.154299531859116e-02
	-3.867510083814949e-02
	-4.662995381434090e-02
	3.141412110625127e-04

 128	1.114999999999999e-06
	5.000000000000493e-02
	4.580392664084116e-01
	2.129981514027270e-01
	-2.124856269160406e-02
	-3.858264820083340e-02
	-4.660345879021078e-02
	4.080392664084067e-04

 129	1.120000000000000e-06
	0.000000000000000e+00
	4.546681691525939e-01
	2.139778173924225e-01
	-2.110082295188268e-02
	-3.853591244183852e-02
	-4.658997325369671e-02
	4.546681691525940e-04

 130	1.121000000000000e-06
	0.000000000000000e+00
	4.539743909435568e-01
	2.141705728499703e-01
	-2.107122987934720e-02
	-3.852651788973082e-02
	-4.658725379241480e-02
	4.539743909435568e-04

 131	1.123000000000000e-06
	0.000000000000000e+00
	4.525899870112868e-01
	2.145542507897346e-01
	-2.101201923532679e-02
	-3.850770175539830e-02
	-4.658180205063259e-02
	4.525899870112868e-04

 132	1.127000000000000e-06
	0.000000000000000e+00
	4.498399969226333e-01
	2.153106727512719e-01
	-2.089345534545646e-02
	-3.846990751457600e-02
	-4.657082149736697e-02
	4.498399969226333e-04

 133	1.135000000000000e-06
	0.000000000000000e+00
	4.444143266785392e-01
	2.167804134274443e-01
	-2.065580037263944e-02
	-3.839367337862738e-02
	-4.654855058378272e-02
	4.444143266785392e-04

 134	1.145000000000000e-06
	0.000000000000000e+00
	4.377690866322465e-01
	2.185384039355683e-01
	-2.035785387935340e-02
	-3.829717653915879e-02
	-4.652012710607743e-02
	4.377690866322465e-04

 135	1.155000000000000e-06
	0.000000000000000e+00
	4.312724171139211e-01
	2.202106998916769e-01
	-2.005908577942279e-02
	-3.819935183070090e-02
	-4.649104828328523e-02
	4.312724171139211e-04

 136	1.165000000000000e-06
	0.000000000000000e+00
	4.249205399578274e-01
	2.217997830330720e-01
	-1.975966063570823e-02
	-3.810021170949432e-02
	-4.646130814065454e-02
	4.249205399578274e-04

 137	1.175000000000000e-06
	0.000000000000000e+00
	4.187097760534269e-01
	2.233080681093271e-01
	-1.945973631104827e-02
	-3.799976992310091e-02
	-4.643090089909887e-02
	4.187097760534268e-04

 138	1.185000000000000e-06
	0.000000000000000e+00
	4.126365427294749e-01
	2.247379046660861e-01
	-1.915946419197815e-02
	-3.789804142159191e-02
	-4.639982098545728e-02
	4.126365427294749e-04

 139	1.195000000000000e-06
	0.000000000000000e+00
	4.066973512073446e-01
	2.260915787814873e-01
	-1.885898940541801e-02
	-3.779504227277145e-02
	-4.636806304177930e-02
	4.066973512073446e-04

 140	1.204999999999999e-06
	0.000000000000000e+00
	4.008888041217435e-01
	2.273713147564710e-01
	-1.855845102854651e-02
	-3.769078958127810e-02
	-4.633562193368449e-02
	4.008888041217435e-04

 141	1.214999999999999e-06
	0.000000000000000e+00
	3.952075931070390e-01
	2.285792767601942e-01
	-1.825798229206960e-02
	-3.758530141141193e-02
	-4.630249275784453e-02
	3.952075931070390e-04

 142	1.224999999999999e-06
	0.000000000000000e+00
	3.896504964474538e-01
	2.297175704317459e-01
	-1.795771077708748e-02
	-3.747859671354058e-02
	-4.626867084863365e-02
	3.896504964474537e-04

 143	1.234999999999999e-06
	0.000000000000000e+00
	3.842143767894400e-01
	2.307882444393211e-01
	-1.765775860575676e-02
	-3.737069525394311e-02
	-4.623415178399164e-02
	3.842143767894401e-04

 144	1.244999999999999e-06
	0.000000000000000e+00
	3.788961789145863e-01
	2.317932919979857e-01
	-1.735824262593877e-02
	-3.726161754795528e-02
	-4.619893139054121e-02
	3.788961789145863e-04

 145	1.254999999999999e-06
	0.000000000000000e+00
	3.736929275714516e-01
	2.327346523471291e-01
	-1.705927459001911e-02
	-3.715138479628537e-02
	-4.616300574800044e-02
	3.736929275714516e-04

 146	1.264999999999999e-06
	0.000000000000000e+00
	3.686017253647684e-01
	2.336142121886773e-01
	-1.676096132807802e-02
	-3.704001882437391e-02
	-4.612637119292863e-02
	3.686017253647684e-04

 147	1.274999999999999e-06
	0.000000000000000e+00
	3.636197507004947e-01
	2.344338070871053e-01
	-1.646340491558549e-02
	-3.692754202467560e-02
	-4.608902432184263e-02
	3.636197507004947e-04

 148	1.284999999999999e-06
	0.000000000000000e+00
	3.587442557852343e-01
	2.351952228322663e-01
	-1.616670283578998e-02
	-3.681397730174617e-02
	-4.605096199373902e-02
	3.587442557852343e-04

 149	1.294999999999999e-06
	0.000000000000000e+00
	3.539725646785876e-01
	2.359001967660229e-01
	-1.587094813696400e-02
	-3.669934802002126e-02
	-4.601218133205597e-02
	3.539725646785876e-04

 150	1.304999999999999e-06
	0.000000000000000e+00
	3.493020713970297e-01
	2.365504190736415e-01
	-1.557622958466556e-02
	-3.658367795417823e-02
	-4.597267972610707e-02
	3.493020713970297e-04

 151	1.314999999999998e-06
	0.000000000000000e+00
	3.447302380679526e-01
	2.371475340408854e-01
	-1.528263180916880e-02
	-3.646699124197649e-02
	-4.593245483201815e-02
	3.447302380679526e-04

 152	1.324999999999998e-06
	0.000000000000000e+00
	3.402545931325407e-01
	2.376931412777189e-01
	-1.499023544821316e-02
	-3.634931233947497e-02
	-4.589150457319673e-02
	3.402545931325407e-04

 153	1.334999999999998e-06
	0.000000000000000e+00
	3.358727295961895e-01
	2.381887969095057e-01
	-1.469911728521539e-02
	-3.623066597852987e-02
	-4.584982714036218e-02
	3.358727295961895e-04

 154	1.344999999999998e-06
	0.000000000000000e+00
	3.315823033252059e-01
	2.386360147365679e-01