Title: * simulation de rc2
Date: Sat Jun 16 23:11:45  2018
Plotname: DC transfer characteristic
Flags: real
No. Variables: 8
No. Points: 501
Variables:
	0	v-sweep	voltage
	1	n0	voltage
	2	n1	voltage
	3	n2	voltage
	4	n3	voltage
	5	n4	voltage
	6	n5	voltage
	7	i(v1)	current
Values:
 0	0.000000000000000e+00
	0.000000000000000e+00
	-5.263157894736840e-03
	-1.052631578947368e-02
	-3.684210526315788e-02
	-4.210526315789472e-02
	-4.736842105263156e-02
	-5.263157894736841e-06

 1	1.000000000000000e-02
	1.000000000000000e-02
	4.210526315789475e-03
	-1.578947368421050e-03
	-3.052631578947368e-02
	-3.631578947368420e-02
	-4.210526315789473e-02
	-5.789473684210525e-06

 2	2.000000000000000e-02
	2.000000000000000e-02
	1.368421052631579e-02
	7.368421052631581e-03
	-2.421052631578947e-02
	-3.052631578947368e-02
	-3.684210526315788e-02
	-6.315789473684212e-06

 3	3.000000000000000e-02
	3.000000000000000e-02
	2.315789473684211e-02
	1.631578947368421e-02
	-1.789473684210525e-02
	-2.473684210526315e-02
	-3.157894736842104e-02
	-6.842105263157894e-06

 4	4.000000000000000e-02
	4.000000000000000e-02
	3.263157894736842e-02
	2.526315789473684e-02
	-1.157894736842105e-02
	-1.894736842105263e-02
	-2.631578947368421e-02
	-7.368421052631584e-06

 5	5.000000000000000e-02
	5.000000000000000e-02
	4.210526315789474e-02
	3.421052631578947e-02
	-5.263157894736843e-03
	-1.315789473684210e-02
	-2.105263157894736e-02
	-7.894736842105265e-06

 6	6.000000000000000e-02
	6.000000000000000e-02
	5.157894736842106e-02
	4.315789473684211e-02
	1.052631578947371e-03
	-7.368421052631576e-03
	-1.578947368421052e-02
	-8.421052631578952e-06

 7	7.000000000000001e-02
	7.000000000000001e-02
	6.105263157894737e-02
	5.210526315789474e-02
	7.368421052631578e-03
	-1.578947368421054e-03
	-1.052631578947369e-02
	-8.947368421052639e-06

 8	8.000000000000000e-02
	8.000000000000000e-02
	7.052631578947369e-02
	6.105263157894737e-02
	1.368421052631578e-02
	4.210526315789468e-03
	-5.263157894736846e-03
	-9.473684210526312e-06

 9	9.000000000000000e-02
	9.000000000000000e-02
	7.999999999999999e-02
	6.999999999999999e-02
	1.999999999999999e-02
	9.999999999999990e-03
	-8.673617379884035e-18
	-9.999999999999999e-06

 10	9.999999999999999e-02
	9.999999999999999e-02
	8.947368421052629e-02
	7.894736842105260e-02
	2.631578947368418e-02
	1.578947368421050e-02
	5.263157894736817e-03
	-1.052631578947370e-05

 11	1.100000000000000e-01
	1.100000000000000e-01
	9.894736842105262e-02
	8.789473684210523e-02
	3.263157894736839e-02
	2.157894736842102e-02
	1.052631578947366e-02
	-1.105263157894737e-05

 12	1.200000000000000e-01
	1.200000000000000e-01
	1.084210526315789e-01
	9.684210526315790e-02
	3.894736842105263e-02
	2.736842105263158e-02
	1.578947368421052e-02
	-1.157894736842105e-05

 13	1.300000000000000e-01
	1.300000000000000e-01
	1.178947368421052e-01
	1.057894736842105e-01
	4.526315789473682e-02
	3.315789473684209e-02
	2.105263157894735e-02
	-1.210526315789473e-05

 14	1.400000000000000e-01
	1.400000000000000e-01
	1.273684210526315e-01
	1.147368421052631e-01
	5.157894736842101e-02
	3.894736842105259e-02
	2.631578947368417e-02
	-1.263157894736843e-05

 15	1.500000000000000e-01
	1.500000000000000e-01
	1.368421052631579e-01
	1.236842105263158e-01
	5.789473684210522e-02
	4.473684210526312e-02
	3.157894736842101e-02
	-1.315789473684212e-05

 16	1.600000000000000e-01
	1.600000000000000e-01
	1.463157894736842e-01
	1.326315789473684e-01
	6.421052631578945e-02
	5.052631578947366e-02
	3.684210526315787e-02
	-1.368421052631581e-05

 17	1.700000000000000e-01
	1.700000000000000e-01
	1.557894736842105e-01
	1.415789473684211e-01
	7.052631578947366e-02
	5.631578947368418e-02
	4.210526315789470e-02
	-1.421052631578947e-05

 18	1.800000000000000e-01
	1.800000000000000e-01
	1.652631578947368e-01
	1.505263157894737e-01
	7.684210526315786e-02
	6.210526315789471e-02
	4.736842105263155e-02
	-1.473684210526318e-05

 19	1.900000000000000e-01
	1.900000000000000e-01
	1.747368421052632e-01
	1.594736842105263e-01
	8.315789473684210e-02
	6.789473684210526e-02
	5.263157894736842e-02
	-1.526315789473684e-05

 20	2.000000000000000e-01
	2.000000000000000e-01
	1.842105263157895e-01
	1.684210526315790e-01
	8.947368421052630e-02
	7.368421052631578e-02
	5.789473684210525e-02
	-1.578947368421053e-05

 21	2.100000000000000e-01
	2.100000000000000e-01
	1.936842105263158e-01
	1.773684210526316e-01
	9.578947368421054e-02
	7.947368421052632e-02
	6.315789473684211e-02
	-1.631578947368422e-05

 22	2.200000000000001e-01
	2.200000000000001e-01
	2.031578947368421e-01
	1.863157894736842e-01
	1.021052631578947e-01
	8.526315789473685e-02
	6.842105263157895e-02
	-1.684210526315790e-05

 23	2.300000000000001e-01
	2.300000000000001e-01
	2.126315789473684e-01
	1.952631578947369e-01
	1.084210526315789e-01
	9.105263157894736e-02
	7.368421052631577e-02
	-1.736842105263162e-05

 24	2.400000000000001e-01
	2.400000000000001e-01
	2.221052631578948e-01
	2.042105263157895e-01
	1.147368421052632e-01
	9.684210526315790e-02
	7.894736842105263e-02
	-1.789473684210528e-05

 25	2.500000000000001e-01
	2.500000000000001e-01
	2.315789473684211e-01
	2.131578947368421e-01
	1.210526315789474e-01
	1.026315789473684e-01
	8.421052631578946e-02
	-1.842105263157894e-05

 26	2.600000000000001e-01
	2.600000000000001e-01
	2.410526315789474e-01
	2.221052631578948e-01
	1.273684210526316e-01
	1.084210526315789e-01
	8.947368421052630e-02
	-1.894736842105268e-05

 27	2.700000000000001e-01
	2.700000000000001e-01
	2.505263157894737e-01
	2.310526315789474e-01
	1.336842105263158e-01
	1.142105263157895e-01
	9.473684210526315e-02
	-1.947368421052634e-05

 28	2.800000000000001e-01
	2.800000000000001e-01
	2.600000000000001e-01
	2.400000000000000e-01
	1.400000000000000e-01
	1.200000000000000e-01
	9.999999999999999e-02
	-2.000000000000000e-05

 29	2.900000000000001e-01
	2.900000000000001e-01
	2.694736842105264e-01
	2.489473684210527e-01
	1.463157894736842e-01
	1.257894736842105e-01
	1.052631578947368e-01
	-2.052631578947366e-05

 30	3.000000000000001e-01
	3.000000000000001e-01
	2.789473684210527e-01
	2.578947368421053e-01
	1.526315789473684e-01
	1.315789473684210e-01
	1.105263157894737e-01
	-2.105263157894737e-05

 31	3.100000000000001e-01
	3.100000000000001e-01
	2.884210526315790e-01
	2.668421052631579e-01
	1.589473684210526e-01
	1.373684210526316e-01
	1.157894736842105e-01
	-2.157894736842109e-05

 32	3.200000000000001e-01
	3.200000000000001e-01
	2.978947368421053e-01
	2.757894736842106e-01
	1.652631578947368e-01
	1.431578947368421e-01
	1.210526315789474e-01
	-2.210526315789480e-05

 33	3.300000000000001e-01
	3.300000000000001e-01
	3.073684210526316e-01
	2.847368421052632e-01
	1.715789473684210e-01
	1.489473684210526e-01
	1.263157894736842e-01
	-2.263157894736846e-05

 34	3.400000000000001e-01
	3.400000000000001e-01
	3.168421052631580e-01
	2.936842105263159e-01
	1.778947368421053e-01
	1.547368421052632e-01
	1.315789473684211e-01
	-2.315789473684207e-05

 35	3.500000000000001e-01
	3.500000000000001e-01
	3.263157894736843e-01
	3.026315789473685e-01
	1.842105263157895e-01
	1.605263157894737e-01
	1.368421052631579e-01
	-2.368421052631583e-05

 36	3.600000000000002e-01
	3.600000000000002e-01
	3.357894736842107e-01
	3.115789473684212e-01
	1.905263157894737e-01
	1.663157894736843e-01
	1.421052631578948e-01
	-2.421052631578949e-05

 37	3.700000000000002e-01
	3.700000000000002e-01
	3.452631578947370e-01
	3.205263157894738e-01
	1.968421052631580e-01
	1.721052631578948e-01
	1.473684210526316e-01
	-2.473684210526315e-05

 38	3.800000000000002e-01
	3.800000000000002e-01
	3.547368421052633e-01
	3.294736842105264e-01
	2.031578947368421e-01
	1.778947368421053e-01
	1.526315789473685e-01
	-2.526315789473687e-05

 39	3.900000000000002e-01
	3.900000000000002e-01
	3.642105263157897e-01
	3.384210526315791e-01
	2.094736842105264e-01
	1.836842105263159e-01
	1.578947368421053e-01
	-2.578947368421053e-05

 40	4.000000000000002e-01
	4.000000000000002e-01
	3.736842105263160e-01
	3.473684210526317e-01
	2.157894736842105e-01
	1.894736842105263e-01
	1.631578947368421e-01
	-2.631578947368424e-05

 41	4.100000000000002e-01
	4.100000000000002e-01
	3.831578947368423e-01
	3.563157894736844e-01
	2.221052631578948e-01
	1.952631578947369e-01
	1.684210526315790e-01
	-2.684210526315796e-05

 42	4.200000000000002e-01
	4.200000000000002e-01
	3.926315789473687e-01
	3.652631578947370e-01
	2.284210526315790e-01
	2.010526315789474e-01
	1.736842105263158e-01
	-2.736842105263156e-05

 43	4.300000000000002e-01
	4.300000000000002e-01
	4.021052631578949e-01
	3.742105263157896e-01
	2.347368421052632e-01
	2.068421052631579e-01
	1.789473684210526e-01
	-2.789473684210528e-05

 44	4.400000000000002e-01
	4.400000000000002e-01
	4.115789473684213e-01
	3.831578947368423e-01
	2.410526315789474e-01
	2.126315789473684e-01
	1.842105263157895e-01
	-2.842105263157894e-05

 45	4.500000000000002e-01
	4.500000000000002e-01
	4.210526315789476e-01
	3.921052631578948e-01
	2.473684210526316e-01
	2.184210526315790e-01
	1.894736842105263e-01
	-2.894736842105270e-05

 46	4.600000000000002e-01
	4.600000000000002e-01
	4.305263157894739e-01
	4.010526315789475e-01
	2.536842105263158e-01
	2.242105263157895e-01
	1.947368421052632e-01
	-2.947368421052636e-05

 47	4.700000000000003e-01
	4.700000000000003e-01
	4.400000000000002e-01
	4.100000000000001e-01
	2.600000000000000e-01
	2.300000000000000e-01
	2.000000000000000e-01
	-3.000000000000008e-05

 48	4.800000000000003e-01
	4.800000000000003e-01
	4.494736842105265e-01
	4.189473684210528e-01
	2.663157894736842e-01
	2.357894736842105e-01
	2.052631578947368e-01
	-3.052631578947374e-05

 49	4.900000000000003e-01
	4.900000000000003e-01
	4.589473684210529e-01
	4.278947368421055e-01
	2.726315789473685e-01
	2.415789473684211e-01
	2.105263157894737e-01
	-3.105263157894740e-05

 50	5.000000000000002e-01
	5.000000000000002e-01
	4.684210526315791e-01
	4.368421052631580e-01
	2.789473684210527e-01
	2.473684210526316e-01
	2.157894736842105e-01
	-3.157894736842111e-05

 51	5.100000000000002e-01
	5.100000000000002e-01
	4.778947368421055e-01
	4.457894736842107e-01
	2.852631578947368e-01
	2.531578947368421e-01
	2.210526315789473e-01
	-3.210526315789477e-05

 52	5.200000000000002e-01
	5.200000000000002e-01
	4.873684210526318e-01
	4.547368421052633e-01
	2.915789473684211e-01
	2.589473684210526e-01
	2.263157894736842e-01
	-3.263157894736849e-05

 53	5.300000000000002e-01
	5.300000000000002e-01
	4.968421052631582e-01
	4.636842105263161e-01
	2.978947368421054e-01
	2.647368421052632e-01
	2.315789473684211e-01
	-3.315789473684215e-05

 54	5.400000000000003e-01
	5.400000000000003e-01
	5.063157894736844e-01
	4.726315789473685e-01
	3.042105263157894e-01
	2.705263157894736e-01
	2.368421052631578e-01
	-3.368421052631586e-05

 55	5.500000000000003e-01
	5.500000000000003e-01
	5.157894736842108e-01
	4.815789473684212e-01
	3.105263157894737e-01
	2.763157894736842e-01
	2.421052631578947e-01
	-3.421052631578947e-05

 56	5.600000000000003e-01
	5.600000000000003e-01
	5.252631578947371e-01
	4.905263157894738e-01
	3.168421052631579e-01
	2.821052631578947e-01
	2.473684210526316e-01
	-3.473684210526318e-05

 57	5.700000000000003e-01
	5.700000000000003e-01
	5.347368421052634e-01
	4.994736842105265e-01
	3.231578947368421e-01
	2.878947368421052e-01
	2.526315789473684e-01
	-3.526315789473689e-05

 58	5.800000000000003e-01
	5.800000000000003e-01
	5.442105263157897e-01
	5.084210526315791e-01
	3.294736842105264e-01
	2.936842105263158e-01
	2.578947368421052e-01
	-3.578947368421061e-05

 59	5.900000000000003e-01
	5.900000000000003e-01
	5.536842105263160e-01
	5.173684210526318e-01
	3.357894736842106e-01
	2.994736842105264e-01
	2.631578947368421e-01
	-3.631578947368432e-05

 60	6.000000000000003e-01
	6.000000000000003e-01
	5.631578947368423e-01
	5.263157894736843e-01
	3.421052631578947e-01
	3.052631578947368e-01
	2.684210526315789e-01
	-3.684210526315793e-05

 61	6.100000000000003e-01
	6.100000000000003e-01
	5.726315789473686e-01
	5.352631578947370e-01
	3.484210526315790e-01
	3.110526315789474e-01
	2.736842105263158e-01
	-3.736842105263164e-05

 62	6.200000000000003e-01
	6.200000000000003e-01
	5.821052631578950e-01
	5.442105263157897e-01
	3.547368421052632e-01
	3.168421052631579e-01
	2.789473684210527e-01
	-3.789473684210525e-05

 63	6.300000000000003e-01
	6.300000000000003e-01
	5.915789473684213e-01
	5.531578947368423e-01
	3.610526315789474e-01
	3.226315789473684e-01
	2.842105263157895e-01
	-3.842105263157907e-05

 64	6.400000000000003e-01
	6.400000000000003e-01
	6.010526315789477e-01
	5.621052631578950e-01
	3.673684210526316e-01
	3.284210526315789e-01
	2.894736842105263e-01
	-3.894736842105268e-05

 65	6.500000000000004e-01
	6.500000000000004e-01
	6.105263157894740e-01
	5.710526315789476e-01
	3.736842105263159e-01
	3.342105263157895e-01
	2.947368421052632e-01
	-3.947368421052639e-05

 66	6.600000000000004e-01
	6.600000000000004e-01
	6.200000000000003e-01
	5.800000000000003e-01
	3.800000000000001e-01
	3.400000000000001e-01
	3.000000000000000e-01
	-4.000000000000010e-05

 67	6.700000000000004e-01
	6.700000000000004e-01
	6.294736842105266e-01
	5.889473684210528e-01
	3.863157894736842e-01
	3.457894736842105e-01
	3.052631578947368e-01
	-4.052631578947371e-05

 68	6.800000000000004e-01
	6.800000000000004e-01
	6.389473684210529e-01
	5.978947368421055e-01
	3.926315789473685e-01
	3.515789473684211e-01
	3.105263157894737e-01
	-4.105263157894742e-05

 69	6.900000000000004e-01
	6.900000000000004e-01
	6.484210526315792e-01
	6.068421052631582e-01
	3.989473684210527e-01
	3.573684210526316e-01
	3.157894736842105e-01
	-4.157894736842114e-05

 70	7.000000000000004e-01
	7.000000000000004e-01
	6.578947368421055e-01
	6.157894736842108e-01
	4.052631578947369e-01
	3.631578947368421e-01
	3.210526315789474e-01
	-4.210526315789485e-05

 71	7.100000000000004e-01
	7.100000000000004e-01
	6.673684210526319e-01
	6.247368421052635e-01
	4.115789473684212e-01
	3.689473684210527e-01
	3.263157894736843e-01
	-4.263157894736846e-05

 72	7.200000000000004e-01
	7.200000000000004e-01
	6.768421052631584e-01
	6.336842105263162e-01
	4.178947368421054e-01
	3.747368421052633e-01
	3.315789473684211e-01
	-4.315789473684206e-05

 73	7.300000000000004e-01
	7.300000000000004e-01
	6.863157894736845e-01
	6.426315789473687e-01
	4.242105263157895e-01
	3.805263157894737e-01
	3.368421052631579e-01
	-4.368421052631589e-05

 74	7.400000000000004e-01
	7.400000000000004e-01
	6.957894736842108e-01
	6.515789473684213e-01
	4.305263157894737e-01
	3.863157894736842e-01
	3.421052631578947e-01
	-4.421052631578960e-05

 75	7.500000000000004e-01
	7.500000000000004e-01
	7.052631578947373e-01
	6.605263157894741e-01
	4.368421052631580e-01
	3.921052631578948e-01
	3.473684210526316e-01
	-4.473684210526321e-05

 76	7.600000000000005e-01
	7.600000000000005e-01
	7.147368421052636e-01
	6.694736842105267e-01
	4.431578947368422e-01
	3.978947368421053e-01
	3.526315789473685e-01
	-4.526315789473692e-05

 77	7.700000000000005e-01
	7.700000000000005e-01
	7.242105263157899e-01
	6.784210526315793e-01
	4.494736842105264e-01
	4.036842105263158e-01
	3.578947368421053e-01
	-4.578947368421064e-05

 78	7.800000000000005e-01
	7.800000000000005e-01
	7.336842105263163e-01
	6.873684210526320e-01
	4.557894736842106e-01
	4.094736842105264e-01
	3.631578947368421e-01
	-4.631578947368424e-05

 79	7.900000000000005e-01
	7.900000000000005e-01
	7.431578947368425e-01
	6.963157894736844e-01
	4.621052631578948e-01
	4.152631578947368e-01
	3.684210526315789e-01
	-4.684210526315795e-05

 80	8.000000000000005e-01
	8.000000000000005e-01
	7.526315789473688e-01
	7.052631578947371e-01
	4.684210526315790e-01
	4.210526315789474e-01
	3.736842105263158e-01
	-4.736842105263167e-05

 81	8.100000000000005e-01
	8.100000000000005e-01
	7.621052631578951e-01
	7.142105263157897e-01
	4.747368421052632e-01
	4.268421052631579e-01
	3.789473684210526e-01
	-4.789473684210538e-05

 82	8.200000000000005e-01
	8.200000000000005e-01
	7.715789473684215e-01
	7.231578947368424e-01
	4.810526315789475e-01
	4.326315789473685e-01
	3.842105263157896e-01
	-4.842105263157899e-05

 83	8.300000000000005e-01
	8.300000000000005e-01
	7.810526315789478e-01
	7.321052631578950e-01
	4.873684210526317e-01
	4.384210526315790e-01
	3.894736842105264e-01
	-4.894736842105281e-05

 84	8.400000000000005e-01
	8.400000000000005e-01
	7.905263157894742e-01
	7.410526315789477e-01
	4.936842105263159e-01
	4.442105263157895e-01
	3.947368421052632e-01
	-4.947368421052642e-05

 85	8.500000000000005e-01
	8.500000000000005e-01
	8.000000000000006e-01
	7.500000000000006e-01
	5.000000000000002e-01
	4.500000000000002e-01
	4.000000000000001e-01
	-5.000000000000002e-05

 86	8.600000000000005e-01
	8.600000000000005e-01
	8.094736842105268e-01
	7.589473684210530e-01
	5.063157894736843e-01
	4.557894736842105e-01
	4.052631578947368e-01
	-5.052631578947374e-05

 87	8.700000000000006e-01
	8.700000000000006e-01
	8.189473684210531e-01
	7.678947368421056e-01
	5.126315789473685e-01
	4.615789473684211e-01
	4.105263157894737e-01
	-5.105263157894745e-05

 88	8.800000000000006e-01
	8.800000000000006e-01
	8.284210526315794e-01
	7.768421052631582e-01
	5.189473684210527e-01
	4.673684210526316e-01
	4.157894736842105e-01
	-5.157894736842117e-05

 89	8.900000000000006e-01
	8.900000000000006e-01
	8.378947368421057e-01
	7.857894736842109e-01
	5.252631578947370e-01
	4.731578947368422e-01
	4.210526315789474e-01
	-5.210526315789488e-05

 90	9.000000000000006e-01
	9.000000000000006e-01
	8.473684210526321e-01
	7.947368421052636e-01
	5.315789473684213e-01
	4.789473684210528e-01
	4.263157894736843e-01
	-5.263157894736848e-05

 91	9.100000000000006e-01
	9.100000000000006e-01
	8.568421052631585e-01
	8.036842105263163e-01
	5.378947368421054e-01
	4.847368421052632e-01
	4.315789473684211e-01
	-5.315789473684209e-05

 92	9.200000000000006e-01
	9.200000000000006e-01
	8.663157894736847e-01
	8.126315789473688e-01
	5.442105263157896e-01
	4.905263157894738e-01
	4.368421052631579e-01
	-5.368421052631580e-05

 93	9.300000000000006e-01
	9.300000000000006e-01
	8.757894736842111e-01
	8.215789473684215e-01
	5.505263157894739e-01
	4.963157894736843e-01
	4.421052631578948e-01
	-5.421052631578941e-05

 94	9.400000000000006e-01
	9.400000000000006e-01
	8.852631578947374e-01
	8.305263157894741e-01
	5.568421052631580e-01
	5.021052631578948e-01
	4.473684210526316e-01
	-5.473684210526323e-05

 95	9.500000000000006e-01
	9.500000000000006e-01
	8.947368421052637e-01
	8.394736842105267e-01
	5.631578947368423e-01
	5.078947368421054e-01
	4.526315789473686e-01
	-5.526315789473695e-05

 96	9.600000000000006e-01
	9.600000000000006e-01
	9.042105263157900e-01
	8.484210526315794e-01
	5.694736842105266e-01
	5.136842105263161e-01
	4.578947368421055e-01
	-5.578947368421066e-05

 97	9.700000000000006e-01
	9.700000000000006e-01
	9.136842105263165e-01
	8.573684210526322e-01
	5.757894736842107e-01
	5.194736842105265e-01
	4.631578947368423e-01
	-5.631578947368416e-05

 98	9.800000000000006e-01
	9.800000000000006e-01
	9.231578947368426e-01
	8.663157894736846e-01
	5.821052631578949e-01
	5.252631578947370e-01
	4.684210526315791e-01
	-5.684210526315798e-05

 99	9.900000000000007e-01
	9.900000000000007e-01
	9.326315789473689e-01
	8.752631578947372e-01
	5.884210526315791e-01
	5.310526315789474e-01
	4.736842105263158e-01
	-5.736842105263170e-05

 100	1.000000000000001e+00
	1.000000000000001e+00
	9.421052631578953e-01
	8.842105263157900e-01
	5.947368421052633e-01
	5.368421052631581e-01
	4.789473684210528e-01
	-5.789473684210530e-05

 101	1.010000000000001e+00
	1.010000000000001e+00
	9.515789473684216e-01
	8.931578947368426e-01
	6.010526315789476e-01
	5.426315789473687e-01
	4.842105263157897e-01
	-5.842105263157902e-05

 102	1.020000000000001e+00
	1.020000000000001e+00
	9.610526315789479e-01
	9.021052631578952e-01
	6.073684210526317e-01
	5.484210526315790e-01
	4.894736842105264e-01
	-5.894736842105273e-05

 103	1.030000000000001e+00
	1.030000000000001e+00
	9.705263157894743e-01
	9.110526315789479e-01
	6.136842105263159e-01
	5.542105263157896e-01
	4.947368421052632e-01
	-5.947368421052633e-05

 104	1.040000000000001e+00
	1.040000000000001e+00
	9.800000000000006e-01
	9.200000000000005e-01
	6.200000000000002e-01
	5.600000000000002e-01
	5.000000000000002e-01
	-6.000000000000016e-05

 105	1.050000000000001e+00
	1.050000000000001e+00
	9.894736842105269e-01
	9.289473684210532e-01
	6.263157894736845e-01
	5.657894736842108e-01
	5.052631578947372e-01
	-6.052631578947376e-05

 106	1.060000000000001e+00
	1.060000000000001e+00
	9.989473684210533e-01
	9.378947368421058e-01
	6.326315789473687e-01
	5.715789473684213e-01
	5.105263157894739e-01
	-6.105263157894759e-05

 107	1.070000000000001e+00
	1.070000000000001e+00
	1.008421052631580e+00
	9.468421052631587e-01
	6.389473684210530e-01
	5.773684210526320e-01
	5.157894736842109e-01
	-6.157894736842097e-05

 108	1.080000000000001e+00
	1.080000000000001e+00
	1.017894736842106e+00
	9.557894736842109e-01
	6.452631578947369e-01
	5.831578947368421e-01
	5.210526315789474e-01
	-6.210526315789480e-05

 109	1.090000000000001e+00
	1.090000000000001e+00
	1.027368421052632e+00
	9.647368421052636e-01
	6.515789473684211e-01
	5.889473684210528e-01
	5.263157894736844e-01
	-6.263157894736862e-05

 110	1.100000000000001e+00
	1.100000000000001e+00
	1.036842105263158e+00
	9.736842105263163e-01
	6.578947368421054e-01
	5.947368421052633e-01
	5.315789473684213e-01
	-6.315789473684223e-05

 111	1.110000000000001e+00
	1.110000000000001e+00
	1.046315789473685e+00
	9.826315789473690e-01
	6.642105263157897e-01
	6.005263157894739e-01
	5.368421052631581e-01
	-6.368421052631583e-05

 112	1.120000000000001e+00
	1.120000000000001e+00
	1.055789473684211e+00
	9.915789473684216e-01
	6.705263157894739e-01
	6.063157894736844e-01
	5.421052631578949e-01
	-6.421052631578944e-05

 113	1.130000000000001e+00
	1.130000000000001e+00
	1.065263157894738e+00
	1.000526315789474e+00
	6.768421052631581e-01
	6.121052631578949e-01
	5.473684210526318e-01
	-6.473684210526326e-05

 114	1.140000000000001e+00
	1.140000000000001e+00
	1.074736842105264e+00
	1.009473684210527e+00
	6.831578947368423e-01
	6.178947368421055e-01
	5.526315789473687e-01
	-6.526315789473686e-05

 115	1.150000000000001e+00
	1.150000000000001e+00
	1.084210526315790e+00
	1.018421052631580e+00
	6.894736842105265e-01
	6.236842105263160e-01
	5.578947368421054e-01
	-6.578947368421069e-05

 116	1.160000000000001e+00
	1.160000000000001e+00
	1.093684210526316e+00
	1.027368421052632e+00
	6.957894736842107e-01
	6.294736842105265e-01
	5.631578947368423e-01
	-6.631578947368429e-05

 117	1.170000000000001e+00
	1.170000000000001e+00
	1.103157894736843e+00
	1.036315789473685e+00
	7.021052631578950e-01
	6.352631578947371e-01
	5.684210526315792e-01
	-6.684210526315812e-05

 118	1.180000000000001e+00
	1.180000000000001e+00
	1.112631578947369e+00
	1.045263157894738e+00
	7.084210526315792e-01
	6.410526315789475e-01
	5.736842105263160e-01
	-6.736842105263172e-05

 119	1.190000000000001e+00
	1.190000000000001e+00
	1.122105263157896e+00
	1.054210526315790e+00
	7.147368421052636e-01
	6.468421052631582e-01
	5.789473684210530e-01
	-6.789473684210511e-05

 120	1.200000000000001e+00
	1.200000000000001e+00
	1.131578947368422e+00
	1.063157894736843e+00
	7.210526315789475e-01
	6.526315789473686e-01
	5.842105263157896e-01
	-6.842105263157915e-05

 121	1.210000000000001e+00
	1.210000000000001e+00
	1.141052631578948e+00
	1.072105263157895e+00
	7.273684210526318e-01
	6.584210526315791e-01
	5.894736842105265e-01
	-6.894736842105276e-05

 122	1.220000000000001e+00
	1.220000000000001e+00
	1.150526315789474e+00
	1.081052631578948e+00
	7.336842105263159e-01
	6.642105263157896e-01
	5.947368421052633e-01
	-6.947368421052658e-05

 123	1.230000000000001e+00
	1.230000000000001e+00
	1.160000000000001e+00
	1.090000000000001e+00
	7.400000000000002e-01
	6.700000000000002e-01
	6.000000000000002e-01
	-7.000000000000018e-05

 124	1.240000000000001e+00
	1.240000000000001e+00
	1.169473684210527e+00
	1.098947368421053e+00
	7.463157894736845e-01
	6.757894736842108e-01
	6.052631578947372e-01
	-7.052631578947401e-05

 125	1.250000000000001e+00
	1.250000000000001e+00
	1.178947368421053e+00
	1.107894736842106e+00
	7.526315789473688e-01
	6.815789473684214e-01
	6.105263157894740e-01
	-7.105263157894740e-05

 126	1.260000000000001e+00
	1.260000000000001e+00
	1.188421052631580e+00
	1.116842105263159e+00
	7.589473684210528e-01
	6.873684210526317e-01
	6.157894736842107e-01
	-7.157894736842122e-05

 127	1.270000000000001e+00
	1.270000000000001e+00
	1.197894736842106e+00
	1.125789473684211e+00
	7.652631578947371e-01
	6.931578947368423e-01
	6.210526315789476e-01
	-7.210526315789482e-05

 128	1.280000000000001e+00
	1.280000000000001e+00
	1.207368421052633e+00
	1.134736842105264e+00
	7.715789473684214e-01
	6.989473684210529e-01
	6.263157894736845e-01
	-7.263157894736843e-05

 129	1.290000000000001e+00
	1.290000000000001e+00
	1.216842105263159e+00
	1.143684210526317e+00
	7.778947368421055e-01
	7.047368421052634e-01
	6.315789473684214e-01
	-7.315789473684203e-05

 130	1.300000000000001e+00
	1.300000000000001e+00
	1.226315789473685e+00
	1.152631578947369e+00
	7.842105263157898e-01
	7.105263157894740e-01
	6.368421052631582e-01
	-7.368421052631586e-05

 131	1.310000000000001e+00
	1.310000000000001e+00
	1.235789473684211e+00
	1.161578947368422e+00
	7.905263157894741e-01
	7.163157894736846e-01
	6.421052631578951e-01
	-7.421052631578968e-05

 132	1.320000000000001e+00
	1.320000000000001e+00
	1.245263157894738e+00
	1.170526315789475e+00
	7.968421052631585e-01
	7.221052631578952e-01
	6.473684210526320e-01
	-7.473684210526307e-05

 133	1.330000000000001e+00
	1.330000000000001e+00
	1.254736842105264e+00
	1.179473684210527e+00
	8.031578947368423e-01
	7.278947368421055e-01
	6.526315789473687e-01
	-7.526315789473689e-05

 134	1.340000000000001e+00
	1.340000000000001e+00
	1.264210526315790e+00
	1.188421052631579e+00
	8.094736842105266e-01
	7.336842105263160e-01
	6.578947368421055e-01
	-7.578947368421050e-05

 135	1.350000000000001e+00
	1.350000000000001e+00
	1.273684210526317e+00
	1.197368421052632e+00
	8.157894736842107e-01
	7.394736842105265e-01
	6.631578947368423e-01
	-7.631578947368432e-05

 136	1.360000000000001e+00
	1.360000000000001e+00
	1.283157894736843e+00
	1.206315789473685e+00
	8.221052631578950e-01
	7.452631578947371e-01
	6.684210526315791e-01
	-7.684210526315793e-05

 137	1.370000000000001e+00
	1.370000000000001e+00
	1.292631578947369e+00
	1.215263157894737e+00
	8.284210526315793e-01
	7.510526315789476e-01
	6.736842105263161e-01
	-7.736842105263175e-05

 138	1.380000000000001e+00
	1.380000000000001e+00
	1.302105263157896e+00
	1.224210526315790e+00
	8.347368421052633e-01
	7.568421052631581e-01
	6.789473684210529e-01
	-7.789473684210535e-05

 139	1.390000000000001e+00
	1.390000000000001e+00
	1.311578947368422e+00
	1.233157894736843e+00
	8.410526315789477e-01
	7.626315789473688e-01
	6.842105263157898e-01
	-7.842105263157918e-05

 140	1.400000000000001e+00
	1.400000000000001e+00
	1.321052631578948e+00
	1.242105263157895e+00
	8.473684210526319e-01
	7.684210526315792e-01
	6.894736842105266e-01
	-7.894736842105300e-05

 141	1.410000000000001e+00
	1.410000000000001e+00
	1.330526315789474e+00
	1.251052631578948e+00
	8.536842105263160e-01
	7.742105263157897e-01
	6.947368421052634e-01
	-7.947368421052660e-05

 142	1.420000000000001e+00
	1.420000000000001e+00
	1.340000000000001e+00
	1.260000000000001e+00
	8.600000000000003e-01
	7.800000000000002e-01
	7.000000000000003e-01
	-8.000000000000043e-05

 143	1.430000000000001e+00
	1.430000000000001e+00
	1.349473684210527e+00
	1.268947368421053e+00
	8.663157894736847e-01
	7.857894736842109e-01
	7.052631578947373e-01
	-8.052631578947382e-05

 144	1.440000000000001e+00
	1.440000000000001e+00
	1.358947368421054e+00
	1.277894736842107e+00
	8.726315789473691e-01
	7.915789473684217e-01
	7.105263157894743e-01
	-8.105263157894742e-05

 145	1.450000000000001e+00
	1.450000000000001e+00
	1.368421052631580e+00
	1.286842105263159e+00
	8.789473684210531e-01
	7.973684210526321e-01
	7.157894736842110e-01
	-8.157894736842103e-05

 146	1.460000000000001e+00
	1.460000000000001e+00
	1.377894736842106e+00
	1.295789473684211e+00
	8.852631578947372e-01
	8.031578947368424e-01
	7.210526315789477e-01
	-8.210526315789485e-05

 147	1.470000000000001e+00
	1.470000000000001e+00
	1.387368421052632e+00
	1.304736842105264e+00
	8.915789473684214e-01
	8.089473684210529e-01
	7.263157894736845e-01
	-8.263157894736846e-05

 148	1.480000000000001e+00
	1.480000000000001e+00
	1.396842105263159e+00
	1.313684210526317e+00
	8.978947368421056e-01
	8.147368421052635e-01
	7.315789473684214e-01
	-8.315789473684206e-05

 149	1.490000000000001e+00
	1.490000000000001e+00
	1.406315789473685e+00
	1.322631578947369e+00
	9.042105263157897e-01
	8.205263157894739e-01
	7.368421052631581e-01
	-8.368421052631588e-05

 150	1.500000000000001e+00
	1.500000000000001e+00
	1.415789473684211e+00
	1.331578947368422e+00
	9.105263157894739e-01
	8.263157894736843e-01
	7.421052631578949e-01
	-8.421052631578971e-05

 151	1.510000000000001e+00
	1.510000000000001e+00
	1.425263157894738e+00
	1.340526315789474e+00
	9.168421052631581e-01
	8.321052631578949e-01
	7.473684210526318e-01
	-8.473684210526353e-05

 152	1.520000000000001e+00
	1.520000000000001e+00
	1.434736842105264e+00
	1.349473684210527e+00
	9.231578947368425e-01
	8.378947368421056e-01
	7.526315789473688e-01
	-8.526315789473692e-05

 153	1.530000000000001e+00
	1.530000000000001e+00
	1.444210526315790e+00
	1.358421052631580e+00
	9.294736842105267e-01
	8.436842105263161e-01
	7.578947368421056e-01
	-8.578947368421074e-05

 154	1.540000000000001e+00
	1.540000000000001e+00
	1.453684210526317e+00
	1.367368421052632e+00
	9.357894736842109e-01
	8.494736842105267e-01
	7.631578947368425e-01
	-8.631578947368435e-05

 155	1.550000000000001e+00
	1.550000000000001e+00
	1.463157894736843e+00
	1.376315789473685e+00
	9.421052631578950e-01
	8.552631578947371e-01
	7.684210526315791e-01
	-8.684210526315817e-05

 156	1.560000000000001e+00
	1.560000000000001e+00
	1.472631578947369e+00
	1.385263157894738e+00
	9.484210526315792e-01
	8.610526315789475e-01